 Q-Chem 5.3, Q-Chem, Inc., Pleasanton, CA (2020)
 Q-Chem 5.3.2 for Intel X86 EM64T Linux

User input:
--------------------------------------------------------------
$molecule
0 1
6   1.995002766965   0.142353068963   0.076741777919
6   4.852382050874   0.142353068963   0.076741777919
1   1.268667633727   1.714699690908   1.205815342824
1   1.268667633727   -1.621649576534   0.873884949044
1   1.268667633727   0.333990195256   -1.849512752634
1   5.578717184112   -0.049284057329   2.00297741121
1   5.578717184112   1.9063368172   -0.720420290468
1   5.578717184112   -1.430012450242   -1.052350684248
$end

$rem
method hf
basis 6-31g
scf_guess read
jobtype freq
input_bohr true
sym_ignore true
gui 2
hess_and_grad true
vibman_print 6
$end

$comment
this is a test run
$end
--------------------------------------------------------------

    2     -79.1967812486      6.17e-11  Convergence criterion met
 Total energy in the final basis set =      -79.1967812486

                    Orbital Energies (a.u.)
 --------------------------------------------------------------

 Alpha MOs
 -- Occupied --
-11.2129 -11.2123  -1.0260  -0.8402  -0.6000  -0.6000  -0.5078  -0.4816
 -0.4816

          Ground-State Mulliken Net Atomic Charges

     Atom                 Charge (a.u.)
  ----------------------------------------
      1 C                    -0.450029
      2 C                    -0.450029
      3 H                     0.150011
      4 H                     0.150010
      5 H                     0.150009
      6 H                     0.150010
      7 H                     0.150010
      8 H                     0.150009
  ----------------------------------------
  Sum of atomic charges =     0.000000

                    Cartesian Multipole Moments
 -----------------------------------------------------------------
    Charge (ESU x 10^10)
                 0.0000
    Dipole Moment (Debye)
         X       0.0000      Y       0.0000      Z       0.0000
       Tot       0.0000
    Quadrupole Moments (Debye-Ang)
        XX     -15.7914     XY       0.0000     YY     -15.0374
        XZ       0.0000     YZ       0.0000     ZZ     -15.0374

 Frequency:       457.67                 971.49                 971.50
 Force Cnst:      0.1244                 0.5871                 0.5872
 Red. Mass:       1.0078                 1.0559                 1.0559
 IR Intens:        0.000                  3.754                  3.754
 Frequency:      1113.69                1389.00                1389.01
 Force Cnst:      2.4891                 1.6608                 1.6608
 Red. Mass:       3.4061                 1.4611                 1.4610
 IR Intens:        0.000                  0.000                  0.000
 Frequency:      1598.54                1602.68                1663.77
 Force Cnst:      1.8075                 1.8704                 1.6687
 Red. Mass:       1.2006                 1.2359                 1.0231
 IR Intens:        6.232                  0.000                  0.000
 Frequency:      1663.77                1669.09                1669.09
 Force Cnst:      1.6687                 1.7475                 1.7475
 Red. Mass:       1.0231                 1.0646                 1.0646
 IR Intens:        0.000                  9.287                  9.286
 Frequency:      3093.44                3101.06                3145.10
 Force Cnst:      5.8208                 5.8710                 6.4069
 Red. Mass:       1.0324                 1.0362                 1.0993
 IR Intens:       73.619                  0.000                  0.000
 Frequency:      3145.11                3175.09                3175.10
 Force Cnst:      6.4070                 6.5458                 6.5458
 Red. Mass:       1.0993                 1.1020                 1.1020
 IR Intens:        0.000                101.275                101.274

 STANDARD THERMODYNAMIC QUANTITIES AT   298.15 K  AND     1.00 ATM

   This Molecule has  0 Imaginary Frequencies
   Zero point vibrational energy:       50.027 kcal/mol

   Atom    1 Element C  Has Mass   12.00000
   Atom    2 Element C  Has Mass   12.00000
   Atom    3 Element H  Has Mass    1.00783
   Atom    4 Element H  Has Mass    1.00783
   Atom    5 Element H  Has Mass    1.00783
   Atom    6 Element H  Has Mass    1.00783
   Atom    7 Element H  Has Mass    1.00783
   Atom    8 Element H  Has Mass    1.00783
   Molecular Mass:    30.046980 amu
   Principal axes and moments of inertia in amu*Bohr^2:
                             1           2           3
    Eigenvalues --       22.65884    88.40007    88.40011
          X               1.00000    -0.00000     0.00000
          Y               0.00000     0.69752     0.71657
          Z               0.00000     0.71657    -0.69752
   Rotational Symmetry Number is   1
   The Molecule is an Asymmetric Top
   Translational Enthalpy:        0.889 kcal/mol
   Rotational Enthalpy:           0.889 kcal/mol
   Vibrational Enthalpy:         50.275 kcal/mol
   gas constant (RT):             0.592 kcal/mol
   Translational Entropy:        36.134  cal/mol.K
   Rotational Entropy:           19.810  cal/mol.K
   Vibrational Entropy:           1.118  cal/mol.K

   Total Enthalpy:               52.645 kcal/mol
   Total Entropy:                57.061  cal/mol.K

 Total job time:  0.63s(wall), 4.72s(cpu)
        *  Thank you very much for using Q-Chem.  Have a nice day.  *
