 Q-Chem 5.3, Q-Chem, Inc., Pleasanton, CA (2020)
 Q-Chem 5.3.2 for Intel X86 EM64T Linux

             Standard Nuclear Orientation (Angstroms)
    I     Atom           X                Y                Z
 ----------------------------------------------------------------
    1      O       1.0541800000     0.0316100000    -0.0536100000
    2      H       0.7753300000    -0.4894900000    -0.8215100000
    3      H       2.0220700000     0.0055300000    -0.0920300000
 ----------------------------------------------------------------

   11     -75.9833846655      1.81e-09  Convergence criterion met
 Total energy in the final basis set =      -75.9833846655

                    Orbital Energies (a.u.)
 --------------------------------------------------------------

 Alpha MOs
 -- Occupied --
-20.5631  -1.3508  -0.7027  -0.5599  -0.5010

          Ground-State Mulliken Net Atomic Charges

     Atom                 Charge (a.u.)
  ----------------------------------------
      1 O                    -0.792448
      2 H                     0.396224
      3 H                     0.396224
  ----------------------------------------
  Sum of atomic charges =     0.000000

                    Cartesian Multipole Moments
 -----------------------------------------------------------------
    Charge (ESU x 10^10)
                 0.0000
    Dipole Moment (Debye)
         X       1.5263      Y      -1.2121      Z      -1.7861
       Tot       2.6437
    Quadrupole Moments (Debye-Ang)
        XX      -1.4268     XY      -0.8885     YY      -6.6281
        XZ      -1.4621     YZ       1.0109     ZZ      -5.5631

 Frequency:      1851.20                3758.09                3845.82
 Force Cnst:      2.1971                 8.6550                 9.4230
 Red. Mass:       1.0882                 1.0401                 1.0813
 IR Intens:       93.661                  1.152                 21.166

 STANDARD THERMODYNAMIC QUANTITIES AT   298.15 K  AND     1.00 ATM

   This Molecule has  0 Imaginary Frequencies
   Zero point vibrational energy:       13.517 kcal/mol

   Atom    1 Element O  Has Mass   15.99491
   Atom    2 Element H  Has Mass    1.00783
   Atom    3 Element H  Has Mass    1.00783
   Molecular Mass:    18.010570 amu
   Principal axes and moments of inertia in amu*Bohr^2:
                             1           2           3
    Eigenvalues --        2.27626     4.19565     6.47191
          X               0.81649    -0.57735     0.00001
          Y               0.32419     0.45848     0.82746
          Z               0.47774     0.67562    -0.56152
   Rotational Symmetry Number is   1
   The Molecule is an Asymmetric Top
   Translational Enthalpy:        0.889 kcal/mol
   Rotational Enthalpy:           0.889 kcal/mol
   Vibrational Enthalpy:         13.517 kcal/mol
   gas constant (RT):             0.592 kcal/mol
   Translational Entropy:        34.608  cal/mol.K
   Rotational Entropy:           11.900  cal/mol.K
   Vibrational Entropy:           0.003  cal/mol.K

   Total Enthalpy:               15.887 kcal/mol
   Total Entropy:                46.511  cal/mol.K

 Total job time:  0.29s(wall), 0.25s(cpu)
        *  Thank you very much for using Q-Chem.  Have a nice day.  *
