 Q-Chem 5.3, Q-Chem, Inc., Pleasanton, CA (2020)
 Q-Chem 5.3.2 for Intel X86 EM64T Linux

User input:
--------------------------------------------------------------
$molecule
0 1
1   0   0   0.944863062283
1   0   0   -0.944863062283
$end

$rem
method  pbe
basis def2-SVP
symmetry false
sym_ignore true
ecp def2-ecp
mem_total 35000
scf_guess read
jobtype freq
input_bohr true
hess_and_grad true
vibman_print 6
$end

$comment
this is a test run
$end
--------------------------------------------------------------

    2      -1.1388981371      1.79e-11  Convergence criterion met
 Total energy in the final basis set =       -1.1388981371

                    Orbital Energies (a.u.)
 --------------------------------------------------------------

 Alpha MOs
 -- Occupied --
 -0.3389

          Ground-State Mulliken Net Atomic Charges

     Atom                 Charge (a.u.)
  ----------------------------------------
      1 H                     0.000000
      2 H                    -0.000000
  ----------------------------------------
  Sum of atomic charges =     0.000000

                    Cartesian Multipole Moments
 -----------------------------------------------------------------
    Charge (ESU x 10^10)
                 0.0000
    Dipole Moment (Debye)
         X      -0.0000      Y       0.0000      Z       0.0000
       Tot       0.0000
    Quadrupole Moments (Debye-Ang)
        XX      -2.3369     XY       0.0000     YY      -2.3369
        XZ       0.0000     YZ      -0.0000     ZZ      -1.5127

 Frequency:      1938.35
 Force Cnst:      2.2310
 Red. Mass:       1.0078
 IR Intens:        0.000

 STANDARD THERMODYNAMIC QUANTITIES AT   298.15 K  AND     1.00 ATM

   This Molecule has  0 Imaginary Frequencies
   Zero point vibrational energy:        2.771 kcal/mol

 Q-Chem warning in module 0, line  389:

  SYM_IGNORE is turned on for a linear molecule

    We detect a D*h symmetry
   Atom    1 Element H  Has Mass    1.00783
   Atom    2 Element H  Has Mass    1.00783
   Molecular Mass:     2.015660 amu
   Principal axes and moments of inertia in amu*Bohr^2:
                             1           2           3
    Eigenvalues --        0.00000     1.79951     1.79951
          X               0.00000     0.00000     1.00000
          Y               0.00000     1.00000     0.00000
          Z               1.00000     0.00000     0.00000
   Rotational Symmetry Number is   2
   The Molecule is a Symmetric Top
   Translational Enthalpy:        0.889 kcal/mol
   Rotational Enthalpy:           0.889 kcal/mol
   Vibrational Enthalpy:          2.771 kcal/mol
   gas constant (RT):             0.592 kcal/mol
   Translational Entropy:        28.080  cal/mol.K
   Rotational Entropy:            4.234  cal/mol.K
   Vibrational Entropy:           0.002  cal/mol.K

   Total Enthalpy:                5.141 kcal/mol
   Total Entropy:                32.316  cal/mol.K

 Total job time:  0.73s(wall), 0.38s(cpu)
        *  Thank you very much for using Q-Chem.  Have a nice day.  *
