 Q-Chem 5.3, Q-Chem, Inc., Pleasanton, CA (2020)
 Q-Chem 5.3.2 for Intel X86 EM64T Linux

User input:
--------------------------------------------------------------
$molecule
0 1
6   -2.45742408644   0.95339259466   0.000001882331
6   -0.402937381349   2.6047565282   0.000671935043
6   2.054424123193   1.651416200882   -0.000681655047
6   2.457428698515   -0.953515157762   -0.000003688781
6   0.402976855017   -2.604686411612   0.000688649456
6   -2.054433195591   -1.651368424519   -0.000698515078
1   -4.371902833973   1.696368440569   0.000204078488
1   -0.716918591373   4.634396025372   0.002345870204
1   3.65497132605   2.937963421069   -0.00246096626
1   4.371826370261   -1.696321902262   0.000153917116
1   0.716849053626   -4.634390810014   0.002358457854
1   -3.655035404664   -2.937987153829   -0.002473004939
$end

$rem
method  pbe
basis def2-SVP
symmetry false
sym_ignore true
ecp def2-ecp
mem_total 35000
scf_guess read
jobtype freq
input_bohr true
hess_and_grad true
vibman_print 6
$end

$comment
this is a test run
$end
--------------------------------------------------------------

    2    -231.7725454147      9.07e-09  Convergence criterion met
 Total energy in the final basis set =     -231.7725454147

                    Orbital Energies (a.u.)
 --------------------------------------------------------------

 Alpha MOs
 -- Occupied --
 -9.8985  -9.8985  -9.8985  -9.8982  -9.8982  -9.8982  -0.7698  -0.6668
 -0.6668  -0.5363  -0.5363  -0.4694  -0.4038  -0.3975  -0.3723  -0.3723
 -0.3295  -0.2992  -0.2992  -0.2289  -0.2288

          Ground-State Mulliken Net Atomic Charges

     Atom                 Charge (a.u.)
  ----------------------------------------
      1 C                     0.010846
      2 C                     0.011024
      3 C                     0.011127
      4 C                     0.010898
      5 C                     0.011015
      6 C                     0.011137
      7 H                    -0.011031
      8 H                    -0.010975
      9 H                    -0.011014
     10 H                    -0.011062
     11 H                    -0.010967
     12 H                    -0.010997
  ----------------------------------------
  Sum of atomic charges =     0.000000

                    Cartesian Multipole Moments
 -----------------------------------------------------------------
    Charge (ESU x 10^10)
                -0.0000
    Dipole Moment (Debye)
         X       0.0000      Y       0.0000      Z       0.0000
       Tot       0.0001
    Quadrupole Moments (Debye-Ang)
        XX     -32.0418     XY       0.0003     YY     -32.0424
        XZ      -0.0000     YZ       0.0000     ZZ     -38.9272

 Frequency:       370.46                 372.13                 578.21
 Force Cnst:      0.2090                 0.2122                 0.2137
 Red. Mass:       2.5852                 2.6003                 1.0849
 IR Intens:        0.001                  0.002                 81.082
 Frequency:       592.33                 592.57                 707.42
 Force Cnst:      1.1800                 1.1790                 0.8787
 Red. Mass:       5.7082                 5.6987                 2.9800
 IR Intens:        0.001                  0.000                  0.000
 Frequency:       778.51                 779.96                 920.76
 Force Cnst:      0.4457                 0.4473                 0.7253
 Red. Mass:       1.2482                 1.2479                 1.4521
 IR Intens:        0.000                  0.000                  0.000
 Frequency:       922.07                 958.97                 983.41
 Force Cnst:      0.7248                 0.7320                 3.7357
 Red. Mass:       1.4470                 1.3510                 6.5561
 IR Intens:        0.001                  0.000                  0.001
 Frequency:      1027.20                1028.58                1029.82
 Force Cnst:      0.9066                 3.7188                 0.9114
 Red. Mass:       1.4583                 5.9660                 1.4585
 IR Intens:        6.530                  0.002                  6.490
 Frequency:      1099.30                1132.63                1134.14
 Force Cnst:      0.7215                 0.8261                 0.8291
 Red. Mass:       1.0134                 1.0929                 1.0940
 IR Intens:        0.001                  0.000                  0.000
 Frequency:      1291.38                1424.91                1466.23
 Force Cnst:      1.2261                13.4550                 3.1691
 Red. Mass:       1.2479                11.2476                 2.5019
 IR Intens:        0.000                  0.004                  5.683
 Frequency:      1469.21                1642.95                1643.82
 Force Cnst:      3.1870                11.1473                11.2451
 Red. Mass:       2.5059                 7.0093                 7.0633
 IR Intens:        5.599                  0.000                  0.000
 Frequency:      3234.20                3243.18                3245.05
 Force Cnst:      6.6762                 6.7424                 6.7504
 Red. Mass:       1.0833                 1.0880                 1.0880
 IR Intens:        0.069                  0.002                  0.007
 Frequency:      3257.72                3259.18                3267.56
 Force Cnst:      6.8552                 6.8615                 6.9267
 Red. Mass:       1.0963                 1.0964                 1.1011
 IR Intens:       25.348                 25.409                  0.019

 STANDARD THERMODYNAMIC QUANTITIES AT   298.15 K  AND     1.00 ATM

   This Molecule has  0 Imaginary Frequencies
   Zero point vibrational energy:       62.120 kcal/mol

   Atom    1 Element C  Has Mass   12.00000
   Atom    2 Element C  Has Mass   12.00000
   Atom    3 Element C  Has Mass   12.00000
   Atom    4 Element C  Has Mass   12.00000
   Atom    5 Element C  Has Mass   12.00000
   Atom    6 Element C  Has Mass   12.00000
   Atom    7 Element H  Has Mass    1.00783
   Atom    8 Element H  Has Mass    1.00783
   Atom    9 Element H  Has Mass    1.00783
   Atom   10 Element H  Has Mass    1.00783
   Atom   11 Element H  Has Mass    1.00783
   Atom   12 Element H  Has Mass    1.00783
   Molecular Mass:    78.046980 amu
   Principal axes and moments of inertia in amu*Bohr^2:
                             1           2           3
    Eigenvalues --      316.58827   316.61686   633.20504
          X               0.99990    -0.01412    -0.00000
          Y               0.01412     0.99990     0.00000
          Z               0.00000    -0.00000     1.00000
   Rotational Symmetry Number is   1
   The Molecule is an Asymmetric Top
   Translational Enthalpy:        0.889 kcal/mol
   Rotational Enthalpy:           0.889 kcal/mol
   Vibrational Enthalpy:         63.276 kcal/mol
   gas constant (RT):             0.592 kcal/mol
   Translational Entropy:        38.979  cal/mol.K
   Rotational Entropy:           25.654  cal/mol.K
   Vibrational Entropy:           5.283  cal/mol.K

   Total Enthalpy:               65.645 kcal/mol
   Total Entropy:                69.916  cal/mol.K

 Total job time:  82.21s(wall), 79.20s(cpu)
        *  Thank you very much for using Q-Chem.  Have a nice day.  *
